LAMMPS (2 Aug 2023)
atom_style      atomic
units           metal
boundary        p p p

lattice         bcc 2.83517
Lattice spacing in x,y,z = 2.83517 2.83517 2.83517
region          region1 block 0 3 0 3 0 3 units lattice
create_box      1 region1
Created orthogonal box = (0 0 0) to (8.50551 8.50551 8.50551)
  1 by 1 by 2 MPI processor grid

create_atoms    1 box
Created 54 atoms
  using lattice units in orthogonal box = (0 0 0) to (8.50551 8.50551 8.50551)
  create_atoms CPU = 0.000 seconds

pair_style      aenet/cc Eshift
pair_coeff      * * v03 Fe 10sw-10sw.nn Fe
mass            1 55.845

compute        peratom all stress/atom NULL
compute        p all reduce sum c_peratom[1] c_peratom[2] c_peratom[3]
variable       press equal -(c_p[1]+c_p[2]+c_p[3])/(3*vol)
thermo_style   custom step temp etotal pe ke press v_press
thermo         100

reset_timestep  0
timestep        0.0005

velocity        all create 500 12345 dist gaussian

fix             f1 all nve
run             5000
Neighbor list info ...
  update: every = 1 steps, delay = 0 steps, check = yes
  max neighbors/atom: 2000, page size: 100000
  master list distance cutoff = 7.5
  ghost atom cutoff = 7.5
  binsize = 3.75, bins = 3 3 3
  1 neighbor lists, perpetual/occasional/extra = 1 0 0
  (1) pair aenet/cc, perpetual
      attributes: full, newton on
      pair build: full/bin/atomonly
      stencil: full/bin/3d
      bin: standard
Per MPI rank memory allocation (min/avg/max) = 3.838 | 3.838 | 3.838 Mbytes
   Step          Temp          TotEng         PotEng         KinEng         Press         v_press    
         0   500           -232.04954     -235.47493      3.4253938      6326.6744      6326.6744    
       100   223.32342     -232.04936     -233.5793       1.5299413      18735.496      18735.496    
       200   240.54195     -232.04929     -233.69719      1.6479018      19622.394      19622.394    
       300   195.05969     -232.04925     -233.38556      1.3363125      23676.232      23676.232    
       400   174.98289     -232.04924     -233.24801      1.1987707      23773.357      23773.357    
       500   284.68881     -232.04932     -233.99966      1.9503426      17399.366      17399.366    
       600   220.45398     -232.04932     -233.55961      1.5102834      19679.015      19679.015    
       700   347.06499     -232.04939     -234.42706      2.3776685      12952.409      12952.409    
       800   248.42387     -232.04934     -233.75124      1.7018992      19207.26       19207.26     
       900   196.13755     -232.04923     -233.39293      1.3436967      22936.038      22936.038    
      1000   136.93181     -232.04921     -232.9873       0.93809079     24490.858      24490.858    
      1100   284.52053     -232.04934     -233.99853      1.9491898      19342.231      19342.231    
      1200   303.5561      -232.04939     -234.12899      2.0795984      15146.151      15146.151    
      1300   286.25406     -232.04939     -234.01045      1.9610658      15255.963      15255.963    
      1400   335.77706     -232.04939     -234.34973      2.3003374      15401.337      15401.337    
      1500   193.54438     -232.04929     -233.37522      1.3259315      21012.846      21012.846    
      1600   249.41148     -232.04928     -233.75795      1.7086651      20582.498      20582.498    
      1700   179.18526     -232.04926     -233.27682      1.2275602      22261.236      22261.236    
      1800   266.47879     -232.04932     -233.87491      1.8255896      17619.435      17619.435    
      1900   284.03729     -232.04935     -233.99522      1.9458792      18546.05       18546.05     
      2000   231.11024     -232.04931     -233.63259      1.5832872      17979.763      17979.763    
      2100   257.9322      -232.04931     -233.81635      1.7670387      18748.918      18748.918    
      2200   201.78573     -232.04928     -233.43167      1.3823912      22182.592      22182.592    
      2300   240.01113     -232.04929     -233.69355      1.6442653      19674.415      19674.415    
      2400   216.08618     -232.04931     -233.52967      1.4803605      20171.296      20171.296    
      2500   348.05952     -232.0494      -234.43389      2.3844818      13544.695      13544.695    
      2600   276.3199      -232.04936     -233.94236      1.893009       16828.676      16828.676    
      2700   216.60876     -232.0493      -233.53324      1.4839407      20741.26       20741.26     
      2800   266.94207     -232.04932     -233.87808      1.8287634      18265.785      18265.785    
      2900   204.99862     -232.04929     -233.4537       1.404402       21245.252      21245.252    
      3000   312.37582     -232.04935     -234.18937      2.1400204      17387.98       17387.98     
      3100   202.87635     -232.04929     -233.43915      1.3898628      19254.855      19254.855    
      3200   272.45946     -232.04934     -233.9159       1.8665619      17776.001      17776.001    
      3300   314.80842     -232.04936     -234.20605      2.1566856      16261.883      16261.883    
      3400   149.72811     -232.04923     -233.07499      1.0257555      23164.053      23164.053    
      3500   225.54101     -232.04926     -233.5944       1.5451336      21550.083      21550.083    
      3600   229.70293     -232.04931     -233.62296      1.573646       20278.512      20278.512    
      3700   325.19396     -232.04939     -234.27722      2.2278348      15192.979      15192.979    
      3800   268.88594     -232.04935     -233.89143      1.8420805      17019.93       17019.93     
      3900   246.87287     -232.04932     -233.7406       1.6912736      18007.894      18007.894    
      4000   280.98838     -232.04934     -233.97433      1.9249917      17817.685      17817.685    
      4100   217.34639     -232.04929     -233.53828      1.488994       22093.573      22093.573    
      4200   228.58011     -232.04928     -233.61523      1.5659538      20298.658      20298.658    
      4300   202.50631     -232.04929     -233.43662      1.3873277      20754.847      20754.847    
      4400   336.48647     -232.04939     -234.35458      2.3051974      15255.859      15255.859    
      4500   242.11299     -232.04933     -233.70799      1.6586647      17123.876      17123.876    
      4600   225.98494     -232.04928     -233.59746      1.5481749      20807.106      20807.106    
      4700   216.95607     -232.04926     -233.53558      1.48632        20743.076      20743.076    
      4800   199.18356     -232.04926     -233.41382      1.3645643      22077.049      22077.049    
      4900   256.21388     -232.0493      -233.80457      1.7552669      19897.573      19897.573    
      5000   224.91528     -232.04932     -233.59017      1.5408469      17228.004      17228.004    
Loop time of 12.1064 on 2 procs for 5000 steps with 54 atoms

Performance: 17.842 ns/day, 1.345 hours/ns, 413.003 timesteps/s, 22.302 katom-step/s
99.3% CPU use with 2 MPI tasks x no OpenMP threads

MPI task timing breakdown:
Section |  min time  |  avg time  |  max time  |%varavg| %total
---------------------------------------------------------------
Pair    | 11.639     | 11.655     | 11.671     |   0.5 | 96.27
Neigh   | 0          | 0          | 0          |   0.0 |  0.00
Comm    | 0.4116     | 0.42811    | 0.44462    |   2.5 |  3.54
Output  | 0.0040498  | 0.0043062  | 0.0045626  |   0.4 |  0.04
Modify  | 0.0037216  | 0.0037969  | 0.0038721  |   0.1 |  0.03
Other   |            | 0.01538    |            |       |  0.13

Nlocal:             27 ave          27 max          27 min
Histogram: 2 0 0 0 0 0 0 0 0 0
Nghost:            988 ave         988 max         988 min
Histogram: 2 0 0 0 0 0 0 0 0 0
Neighs:              0 ave           0 max           0 min
Histogram: 2 0 0 0 0 0 0 0 0 0
FullNghs:         4536 ave        4536 max        4536 min
Histogram: 2 0 0 0 0 0 0 0 0 0

Total # of neighbors = 9072
Ave neighs/atom = 168
Neighbor list builds = 0
Dangerous builds = 0

Total wall time: 0:00:12
